 Entering Gaussian System, Link 0=/Applications/Gaussian09/g09/g09
 Input=CH3F2TS.com
 Output=CH3F2TS.log
 Initial command:
 /Applications/Gaussian09/g09/l1.exe /Users/rpaton/.Scratch/Gau-24334.inp -scrdir=/Users/rpaton/.Scratch/
 Entering Link 1 = /Applications/Gaussian09/g09/l1.exe PID=     24335.
  
 Copyright (c) 1988,1990,1992,1993,1995,1998,2003,2009,2010,
            Gaussian, Inc.  All Rights Reserved.
  
 This is part of the Gaussian(R) 09 program.  It is based on
 the Gaussian(R) 03 system (copyright 2003, Gaussian, Inc.),
 the Gaussian(R) 98 system (copyright 1998, Gaussian, Inc.),
 the Gaussian(R) 94 system (copyright 1995, Gaussian, Inc.),
 the Gaussian 92(TM) system (copyright 1992, Gaussian, Inc.),
 the Gaussian 90(TM) system (copyright 1990, Gaussian, Inc.),
 the Gaussian 88(TM) system (copyright 1988, Gaussian, Inc.),
 the Gaussian 86(TM) system (copyright 1986, Carnegie Mellon
 University), and the Gaussian 82(TM) system (copyright 1983,
 Carnegie Mellon University). Gaussian is a federally registered
 trademark of Gaussian, Inc.
  
 This software contains proprietary and confidential information,
 including trade secrets, belonging to Gaussian, Inc.
  
 This software is provided under written license and may be
 used, copied, transmitted, or stored only in accord with that
 written license.
  
 The following legend is applicable only to US Government
 contracts under FAR:
  
                    RESTRICTED RIGHTS LEGEND
  
 Use, reproduction and disclosure by the US Government is
 subject to restrictions as set forth in subparagraphs (a)
 and (c) of the Commercial Computer Software - Restricted
 Rights clause in FAR 52.227-19.
  
 Gaussian, Inc.
 340 Quinnipiac St., Bldg. 40, Wallingford CT 06492
  
  
 ---------------------------------------------------------------
 Warning -- This program may not be used in any manner that
 competes with the business of Gaussian, Inc. or will provide
 assistance to any competitor of Gaussian, Inc.  The licensee
 of this program is prohibited from giving any competitor of
 Gaussian, Inc. access to this program.  By using this program,
 the user acknowledges that Gaussian, Inc. is engaged in the
 business of creating and licensing software in the field of
 computational chemistry and represents and warrants to the
 licensee that it is not a competitor of Gaussian, Inc. and that
 it will not use this program in any manner prohibited above.
 ---------------------------------------------------------------
  

 Cite this work as:
 Gaussian 09, Revision B.01,
 M. J. Frisch, G. W. Trucks, H. B. Schlegel, G. E. Scuseria, 
 M. A. Robb, J. R. Cheeseman, G. Scalmani, V. Barone, B. Mennucci, 
 G. A. Petersson, H. Nakatsuji, M. Caricato, X. Li, H. P. Hratchian, 
 A. F. Izmaylov, J. Bloino, G. Zheng, J. L. Sonnenberg, M. Hada, 
 M. Ehara, K. Toyota, R. Fukuda, J. Hasegawa, M. Ishida, T. Nakajima, 
 Y. Honda, O. Kitao, H. Nakai, T. Vreven, J. A. Montgomery, Jr., 
 J. E. Peralta, F. Ogliaro, M. Bearpark, J. J. Heyd, E. Brothers, 
 K. N. Kudin, V. N. Staroverov, T. Keith, R. Kobayashi, J. Normand, 
 K. Raghavachari, A. Rendell, J. C. Burant, S. S. Iyengar, J. Tomasi, 
 M. Cossi, N. Rega, J. M. Millam, M. Klene, J. E. Knox, J. B. Cross, 
 V. Bakken, C. Adamo, J. Jaramillo, R. Gomperts, R. E. Stratmann, 
 O. Yazyev, A. J. Austin, R. Cammi, C. Pomelli, J. W. Ochterski, 
 R. L. Martin, K. Morokuma, V. G. Zakrzewski, G. A. Voth, 
 P. Salvador, J. J. Dannenberg, S. Dapprich, A. D. Daniels, 
 O. Farkas, J. B. Foresman, J. V. Ortiz, J. Cioslowski, 
 and D. J. Fox, Gaussian, Inc., Wallingford CT, 2010.
 
 ******************************************
 Gaussian 09:  EM64M-G09RevB.01 12-Aug-2010
                 1-Apr-2013 
 ******************************************
 %chk=CH3F2TS.chk
 ---------------------------------------------------------------
 # b3lyp/3-21g opt(ts,calcfc,noeigentest) freq geom=connectivity
 ---------------------------------------------------------------
 1/5=1,10=4,11=1,14=-1,18=20,26=3,38=1,57=2/1,3;
 2/9=110,12=2,17=6,18=5,40=1/2;
 3/5=5,11=2,16=1,25=1,30=1,71=2,74=-5/1,2,3;
 4//1;
 5/5=2,38=5/2;
 8/6=4,10=90,11=11/1;
 11/6=1,8=1,9=11,15=111,16=1/1,2,10;
 10/6=1,7=6,13=1/2;
 6/7=2,8=2,9=2,10=2,28=1/1;
 7/10=1,18=20,25=1/1,2,3,16;
 1/5=1,10=4,11=1,14=-1,18=20/3(2);
 2/9=110/2;
 99//99;
 2/9=110/2;
 3/5=5,11=2,16=1,25=1,30=1,71=1,74=-5/1,2,3;
 4/5=5,16=3/1;
 5/5=2,38=5/2;
 7//1,2,3,16;
 1/5=1,11=1,14=-1,18=20/3(-5);
 2/9=110/2;
 6/7=2,8=2,9=2,10=2,19=2,28=1/1;
 99/9=1/99;
 -------------------
 Title Card Required
 -------------------
 Symbolic Z-matrix:
 Charge = -1 Multiplicity = 1
 C                     0.        0.        0. 
 H                     0.        1.07      0. 
 H                    -0.92665  -0.535     0. 
 H                     0.92665  -0.535     0. 
 F                     0.        0.        1.8 
 F                     0.        0.       -1.8 
 

 GradGradGradGradGradGradGradGradGradGradGradGradGradGradGradGradGradGrad
 Berny optimization.
 Initialization pass.
                           ----------------------------
                           !    Initial Parameters    !
                           ! (Angstroms and Degrees)  !
 --------------------------                            --------------------------
 ! Name  Definition              Value          Derivative Info.                !
 --------------------------------------------------------------------------------
 ! R1    R(1,2)                  1.07           calculate D2E/DX2 analytically  !
 ! R2    R(1,3)                  1.07           calculate D2E/DX2 analytically  !
 ! R3    R(1,4)                  1.07           calculate D2E/DX2 analytically  !
 ! R4    R(1,5)                  1.8            calculate D2E/DX2 analytically  !
 ! R5    R(1,6)                  1.8            calculate D2E/DX2 analytically  !
 ! A1    A(2,1,3)              120.0            calculate D2E/DX2 analytically  !
 ! A2    A(2,1,4)              120.0            calculate D2E/DX2 analytically  !
 ! A3    A(2,1,5)               90.0            calculate D2E/DX2 analytically  !
 ! A4    A(2,1,6)               90.0            calculate D2E/DX2 analytically  !
 ! A5    A(3,1,4)              120.0            calculate D2E/DX2 analytically  !
 ! A6    A(3,1,5)               90.0            calculate D2E/DX2 analytically  !
 ! A7    A(3,1,6)               90.0            calculate D2E/DX2 analytically  !
 ! A8    A(4,1,5)               90.0            calculate D2E/DX2 analytically  !
 ! A9    A(4,1,6)               90.0            calculate D2E/DX2 analytically  !
 ! D1    D(2,1,4,3)            180.0            calculate D2E/DX2 analytically  !
 ! D2    D(2,1,5,3)            120.0            calculate D2E/DX2 analytically  !
 ! D3    D(2,1,6,3)           -120.0            calculate D2E/DX2 analytically  !
 ! D4    D(2,1,5,4)           -120.0            calculate D2E/DX2 analytically  !
 ! D5    D(2,1,6,4)            120.0            calculate D2E/DX2 analytically  !
 ! D6    D(3,1,5,4)            120.0            calculate D2E/DX2 analytically  !
 ! D7    D(3,1,6,4)           -120.0            calculate D2E/DX2 analytically  !
 --------------------------------------------------------------------------------
 Trust Radius=3.00D-01 FncErr=1.00D-07 GrdErr=1.00D-06
 Number of steps in this run=     31 maximum allowed number of steps=    100.
 Search for a saddle point of order  1.
 GradGradGradGradGradGradGradGradGradGradGradGradGradGradGradGradGradGrad

                          Input orientation:                          
 ---------------------------------------------------------------------
 Center     Atomic      Atomic             Coordinates (Angstroms)
 Number     Number       Type             X           Y           Z
 ---------------------------------------------------------------------
      1          6           0        0.000000    0.000000    0.000000
      2          1           0        0.000000    1.069998    0.000000
      3          1           0       -0.926645   -0.534999    0.000000
      4          1           0        0.926645   -0.534999    0.000000
      5          9           0        0.000000    0.000000    1.800000
      6          9           0        0.000000    0.000000   -1.800000
 ---------------------------------------------------------------------
                    Distance matrix (angstroms):
                    1          2          3          4          5
     1  C    0.000000
     2  H    1.069998   0.000000
     3  H    1.069998   1.853291   0.000000
     4  H    1.069998   1.853291   1.853291   0.000000
     5  F    1.800000   2.094014   2.094014   2.094014   0.000000
     6  F    1.800000   2.094014   2.094014   2.094014   3.600000
                    6
     6  F    0.000000
 Stoichiometry    CH3F2(1-)
 Framework group  D3H[O(C),C3(F.F),3C2(H)]
 Deg. of freedom     2
 Full point group                 D3H     NOp  12
 Largest Abelian subgroup         C2V     NOp   4
 Largest concise Abelian subgroup C2V     NOp   4
                         Standard orientation:                         
 ---------------------------------------------------------------------
 Center     Atomic      Atomic             Coordinates (Angstroms)
 Number     Number       Type             X           Y           Z
 ---------------------------------------------------------------------
      1          6           0        0.000000    0.000000    0.000000
      2          1           0        0.000000    1.069998    0.000000
      3          1           0       -0.926645   -0.534999    0.000000
      4          1           0        0.926645   -0.534999    0.000000
      5          9           0        0.000000    0.000000    1.800000
      6          9           0        0.000000    0.000000   -1.800000
 ---------------------------------------------------------------------
 Rotational constants (GHZ):    145.9973087      4.0481996      4.0481996
 Standard basis: 3-21G (6D, 7F)
 There are    16 symmetry adapted basis functions of A1  symmetry.
 There are     2 symmetry adapted basis functions of A2  symmetry.
 There are     6 symmetry adapted basis functions of B1  symmetry.
 There are     9 symmetry adapted basis functions of B2  symmetry.
 Integral buffers will be    131072 words long.
 Raffenetti 2 integral format.
 Two-electron integral symmetry is turned on.
    33 basis functions,    54 primitive gaussians,    33 cartesian basis functions
    14 alpha electrons       14 beta electrons
       nuclear repulsion energy        67.0620947548 Hartrees.
 NAtoms=    6 NActive=    6 NUniq=    3 SFac= 4.00D+00 NAtFMM=   50 NAOKFM=F Big=F
 One-electron integrals computed using PRISM.
 NBasis=    33 RedAO= T  NBF=    16     2     6     9
 NBsUse=    33 1.00D-06 NBFU=    16     2     6     9
 Harris functional with IExCor=  402 diagonalized for initial guess.
 ExpMin= 1.83D-01 ExpMax= 4.14D+02 ExpMxC= 4.14D+02 IAcc=1 IRadAn=         1 AccDes= 0.00D+00
 HarFok:  IExCor=  402 AccDes= 0.00D+00 IRadAn=         1 IDoV= 1
 ScaDFX=  1.000000  1.000000  1.000000  1.000000
 FoFCou: FMM=F IPFlag=           0 FMFlag=      100000 FMFlg1=           0
         NFxFlg=           0 DoJE=T BraDBF=F KetDBF=T FulRan=T
         Omega=  0.000000  0.000000  1.000000  0.000000  0.000000 ICntrl=     500 IOpCl=  0
         NMat0=    1 NMatS0=    1 NMatT0=    0 NMatD0=    1 NMtDS0=    0 NMtDT0=    0
         I1Cent=           4 NGrid=           0.
 Petite list used in FoFCou.
 Initial guess orbital symmetries:
       Occupied  (A2") (A1') (A1') (A1') (A2") (A1') (E') (E')
                 (A2") (E") (E") (E') (E') (A1')
       Virtual   (A2") (A1') (E') (E') (E') (E') (A2") (A1') (E')
                 (E') (A1') (E") (E") (E') (E') (A2") (A1') (A1')
                 (A2")
 The electronic state of the initial guess is 1-A1'.
 Requested convergence on RMS density matrix=1.00D-08 within 128 cycles.
 Requested convergence on MAX density matrix=1.00D-06.
 Requested convergence on             energy=1.00D-06.
 No special actions if energy rises.
 Keep R1 ints in memory in canonical form, NReq=1087746.
 Integral accuracy reduced to 1.0D-05 until final iterations.
 Initial convergence to 1.0D-05 achieved.  Increase integral accuracy.
 SCF Done:  E(RB3LYP) =  -238.193602814     A.U. after   11 cycles
             Convg  =    0.4114D-08             -V/T =  2.0050
 Range of M.O.s used for correlation:     1    33
 NBasis=    33 NAE=    14 NBE=    14 NFC=     0 NFV=     0
 NROrb=     33 NOA=    14 NOB=    14 NVA=    19 NVB=    19
 Symmetrizing basis deriv contribution to polar:
 IMax=3 JMax=2 DiffMx= 0.00D+00
 G2DrvN: will do     7 centers at a time, making    1 passes doing MaxLOS=1.
 Calling FoFCou, ICntrl=  3107 FMM=F I1Cent=   0 AccDes= 0.00D+00.
 FoFDir/FoFCou used for L=0 through L=1.
 End of G2Drv Frequency-dependent properties file   721 does not exist.
 End of G2Drv Frequency-dependent properties file   722 does not exist.
          IDoAtm=111111
          Differentiating once with respect to nuclear coordinates.
          Keep R1 ints in memory in canonical form, NReq=959788.
          There are    12 degrees of freedom in the 1st order CPHF.  IDoFFX=4.
      9 vectors produced by pass  0 Test12= 2.22D-11 8.33D-07 XBig12= 1.42D-01 1.93D-01.
 AX will form     9 AO Fock derivatives at one time.
      9 vectors produced by pass  1 Test12= 2.22D-11 8.33D-07 XBig12= 1.15D-02 6.59D-02.
      9 vectors produced by pass  2 Test12= 2.22D-11 8.33D-07 XBig12= 4.98D-04 9.76D-03.
      9 vectors produced by pass  3 Test12= 2.22D-11 8.33D-07 XBig12= 5.07D-07 2.96D-04.
      6 vectors produced by pass  4 Test12= 2.22D-11 8.33D-07 XBig12= 1.29D-09 1.58D-05.
 Inverted reduced A of dimension    42 with in-core refinement.
 End of Minotr Frequency-dependent properties file   721 does not exist.
 End of Minotr Frequency-dependent properties file   722 does not exist.

 **********************************************************************

            Population analysis using the SCF density.

 **********************************************************************

 Orbital symmetries:
       Occupied  (A2") (A1') (A1') (A1') (A2") (A1') (E') (E')
                 (A2") (E") (E") (E') (E') (A1')
       Virtual   (A1') (A2") (E') (E') (E') (E') (A2") (A1') (E')
                 (E') (A1') (E") (E") (E') (E') (A2") (A1') (A1')
                 (A2")
 The electronic state is 1-A1'.
 Alpha  occ. eigenvalues --  -24.10164 -24.10105  -9.92949  -0.72505  -0.71678
 Alpha  occ. eigenvalues --   -0.42641  -0.20362  -0.20362  -0.07654   0.02455
 Alpha  occ. eigenvalues --    0.02455   0.03644   0.03644   0.04665
 Alpha virt. eigenvalues --    0.35895   0.35996   0.41150   0.41150   0.96822
 Alpha virt. eigenvalues --    0.96822   1.11264   1.17997   1.29057   1.29057
 Alpha virt. eigenvalues --    1.92291   2.19116   2.19116   2.27627   2.27627
 Alpha virt. eigenvalues --    2.36776   2.38246   3.62413   3.81442
          Condensed to atoms (all electrons):
              1          2          3          4          5          6
     1  C    5.008168   0.339975   0.339975   0.339975   0.128253   0.128253
     2  H    0.339975   0.602402  -0.015011  -0.015011  -0.023296  -0.023296
     3  H    0.339975  -0.015011   0.602402  -0.015011  -0.023296  -0.023296
     4  H    0.339975  -0.015011  -0.015011   0.602402  -0.023296  -0.023296
     5  F    0.128253  -0.023296  -0.023296  -0.023296   9.500621   0.000071
     6  F    0.128253  -0.023296  -0.023296  -0.023296   0.000071   9.500621
 Mulliken atomic charges:
              1
     1  C   -0.284600
     2  H    0.134237
     3  H    0.134237
     4  H    0.134237
     5  F   -0.559055
     6  F   -0.559055
 Sum of Mulliken atomic charges =  -1.00000
 Mulliken charges with hydrogens summed into heavy atoms:
              1
     1  C    0.118110
     5  F   -0.559055
     6  F   -0.559055
 Sum of Mulliken charges with hydrogens summed into heavy atoms =  -1.00000
 APT atomic charges:
              1
     1  C   -0.750797
     2  H    0.306699
     3  H    0.306699
     4  H    0.306699
     5  F   -0.584650
     6  F   -0.584650
 Sum of APT charges=  -1.00000
 APT Atomic charges with hydrogens summed into heavy atoms:
              1
     1  C    0.169300
     2  H    0.000000
     3  H    0.000000
     4  H    0.000000
     5  F   -0.584650
     6  F   -0.584650
 Sum of APT charges=  -1.00000
 Electronic spatial extent (au):  <R**2>=            272.7842
 Charge=             -1.0000 electrons
 Dipole moment (field-independent basis, Debye):
    X=              0.0000    Y=              0.0000    Z=              0.0000  Tot=              0.0000
 Quadrupole moment (field-independent basis, Debye-Ang):
   XX=            -17.1681   YY=            -17.1681   ZZ=            -35.9475
   XY=              0.0000   XZ=              0.0000   YZ=              0.0000
 Traceless Quadrupole moment (field-independent basis, Debye-Ang):
   XX=              6.2598   YY=              6.2598   ZZ=            -12.5196
   XY=              0.0000   XZ=              0.0000   YZ=              0.0000
 Octapole moment (field-independent basis, Debye-Ang**2):
  XXX=              0.0000  YYY=              0.4752  ZZZ=              0.0000  XYY=              0.0000
  XXY=             -0.4752  XXZ=              0.0000  XZZ=              0.0000  YZZ=              0.0000
  YYZ=              0.0000  XYZ=              0.0000
 Hexadecapole moment (field-independent basis, Debye-Ang**3):
 XXXX=            -19.0296 YYYY=            -19.0296 ZZZZ=           -257.3547 XXXY=              0.0000
 XXXZ=              0.0000 YYYX=              0.0000 YYYZ=              0.0000 ZZZX=              0.0000
 ZZZY=              0.0000 XXYY=             -6.3432 XXZZ=            -37.1979 YYZZ=            -37.1979
 XXYZ=              0.0000 YYXZ=              0.0000 ZZXY=              0.0000
 N-N= 6.706209475476D+01 E-N=-7.107620267710D+02  KE= 2.370203026724D+02
 Symmetry A1   KE= 1.303587428081D+02
 Symmetry A2   KE= 6.244306677333D+00
 Symmetry B1   KE= 8.265441888986D+00
 Symmetry B2   KE= 9.215181129800D+01
  Exact polarizability:   0.000   0.000   0.000   0.000   0.000   0.000
 Approx polarizability:  13.450   0.000  13.450   0.000   0.000  50.015
 Calling FoFJK, ICntrl=    100147 FMM=F ISym2X=1 I1Cent= 0 IOpClX= 0 NMat=1 NMatS=1 NMatT=0.
 ***** Axes restored to original set *****
 -------------------------------------------------------------------
 Center     Atomic                   Forces (Hartrees/Bohr)
 Number     Number              X              Y              Z
 -------------------------------------------------------------------
      1        6           0.000000000    0.000000000    0.000000000
      2        1           0.000000000    0.007365286    0.000000000
      3        1          -0.006378525   -0.003682643    0.000000000
      4        1           0.006378525   -0.003682643    0.000000000
      5        9           0.000000000    0.000000000    0.002185605
      6        9           0.000000000    0.000000000   -0.002185605
 -------------------------------------------------------------------
 Cartesian Forces:  Max     0.007365286 RMS     0.003093865

 GradGradGradGradGradGradGradGradGradGradGradGradGradGradGradGradGradGrad
 Berny optimization.
 Internal  Forces:  Max     0.007365286 RMS     0.002864363
 Search for a saddle point.
 Step number   1 out of a maximum of   31
 All quantities printed in internal units (Hartrees-Bohrs-Radians)
 Swaping is turned off.
 Second derivative matrix not updated -- analytic derivatives used.
 ITU=  0
     Eigenvalues ---   -0.01279   0.02916   0.02916   0.06967   0.06967
     Eigenvalues ---    0.10731   0.11069   0.18039   0.18039   0.38235
     Eigenvalues ---    0.38235   0.38468
 Eigenvectors required to have negative eigenvalues:
                          D1        R5        R4        A6        A8
   1                    0.67432   0.39871  -0.39871   0.19466   0.19466
                          A9        A7        A4        A3        D7
   1                   -0.19466  -0.19466  -0.19466   0.19466   0.00000
 RFO step:  Lambda0=6.071532166D-18 Lambda=-4.70648314D-04.
 Linear search not attempted -- option 19 set.
 Iteration  1 RMS(Cart)=  0.00825672 RMS(Int)=  0.00000000
 Iteration  2 RMS(Cart)=  0.00000000 RMS(Int)=  0.00000000
 ClnCor:  largest displacement from symmetrization is 1.12D-07 for atom     6.
 Variable       Old X    -DE/DX   Delta X   Delta X   Delta X     New X
                                 (Linear)    (Quad)   (Total)
    R1        2.02200   0.00737   0.00000   0.01848   0.01848   2.04048
    R2        2.02200   0.00737   0.00000   0.01848   0.01848   2.04048
    R3        2.02200   0.00737   0.00000   0.01848   0.01848   2.04048
    R4        3.40151   0.00219   0.00000   0.01427   0.01427   3.41578
    R5        3.40151   0.00219   0.00000   0.01427   0.01427   3.41578
    A1        2.09440   0.00000   0.00000   0.00000   0.00000   2.09440
    A2        2.09440   0.00000   0.00000   0.00000   0.00000   2.09440
    A3        1.57080   0.00000   0.00000   0.00000   0.00000   1.57080
    A4        1.57080   0.00000   0.00000   0.00000   0.00000   1.57080
    A5        2.09440   0.00000   0.00000   0.00000   0.00000   2.09440
    A6        1.57080   0.00000   0.00000   0.00000   0.00000   1.57080
    A7        1.57080   0.00000   0.00000   0.00000   0.00000   1.57080
    A8        1.57080   0.00000   0.00000   0.00000   0.00000   1.57080
    A9        1.57080   0.00000   0.00000   0.00000   0.00000   1.57080
    D1        3.14159   0.00000   0.00000   0.00000   0.00000   3.14159
    D2        2.09440   0.00000   0.00000   0.00000   0.00000   2.09440
    D3       -2.09440   0.00000   0.00000   0.00000   0.00000  -2.09440
    D4       -2.09440   0.00000   0.00000   0.00000   0.00000  -2.09440
    D5        2.09440   0.00000   0.00000   0.00000   0.00000   2.09440
    D6        2.09440   0.00000   0.00000   0.00000   0.00000   2.09440
    D7       -2.09440   0.00000   0.00000   0.00000   0.00000  -2.09440
         Item               Value     Threshold  Converged?
 Maximum Force            0.007365     0.000450     NO 
 RMS     Force            0.002864     0.000300     NO 
 Maximum Displacement     0.018476     0.001800     NO 
 RMS     Displacement     0.008257     0.001200     NO 
 Predicted change in Energy=-2.356615D-04
 GradGradGradGradGradGradGradGradGradGradGradGradGradGradGradGradGradGrad

                          Input orientation:                          
 ---------------------------------------------------------------------
 Center     Atomic      Atomic             Coordinates (Angstroms)
 Number     Number       Type             X           Y           Z
 ---------------------------------------------------------------------
      1          6           0        0.000000    0.000000    0.000000
      2          1           0        0.000000    1.079775    0.000000
      3          1           0       -0.935113   -0.539888    0.000000
      4          1           0        0.935113   -0.539888    0.000000
      5          9           0        0.000000    0.000000    1.807553
      6          9           0        0.000000    0.000000   -1.807553
 ---------------------------------------------------------------------
                    Distance matrix (angstroms):
                    1          2          3          4          5
     1  C    0.000000
     2  H    1.079775   0.000000
     3  H    1.079775   1.870226   0.000000
     4  H    1.079775   1.870226   1.870226   0.000000
     5  F    1.807553   2.105508   2.105508   2.105508   0.000000
     6  F    1.807553   2.105508   2.105508   2.105508   3.615107
                    6
     6  F    0.000000
 Stoichiometry    CH3F2(1-)
 Framework group  D3H[O(C),C3(F.F),3C2(H)]
 Deg. of freedom     2
 Full point group                 D3H     NOp  12
 Largest Abelian subgroup         C2V     NOp   4
 Largest concise Abelian subgroup C2V     NOp   4
                         Standard orientation:                         
 ---------------------------------------------------------------------
 Center     Atomic      Atomic             Coordinates (Angstroms)
 Number     Number       Type             X           Y           Z
 ---------------------------------------------------------------------
      1          6           0        0.000000    0.000000    0.000000
      2          1           0        0.000000    1.079775    0.000000
      3          1           0       -0.935113   -0.539888    0.000000
      4          1           0        0.935113   -0.539888    0.000000
      5          9           0        0.000000    0.000000    1.807553
      6          9           0        0.000000    0.000000   -1.807553
 ---------------------------------------------------------------------
 Rotational constants (GHZ):    143.3652823      4.0138877      4.0138877
 Standard basis: 3-21G (6D, 7F)
 There are    16 symmetry adapted basis functions of A1  symmetry.
 There are     2 symmetry adapted basis functions of A2  symmetry.
 There are     6 symmetry adapted basis functions of B1  symmetry.
 There are     9 symmetry adapted basis functions of B2  symmetry.
 Integral buffers will be    131072 words long.
 Raffenetti 2 integral format.
 Two-electron integral symmetry is turned on.
    33 basis functions,    54 primitive gaussians,    33 cartesian basis functions
    14 alpha electrons       14 beta electrons
       nuclear repulsion energy        66.7167997338 Hartrees.
 NAtoms=    6 NActive=    6 NUniq=    3 SFac= 4.00D+00 NAtFMM=   50 NAOKFM=F Big=F
 One-electron integrals computed using PRISM.
 NBasis=    33 RedAO= T  NBF=    16     2     6     9
 NBsUse=    33 1.00D-06 NBFU=    16     2     6     9
 Initial guess read from the read-write file.
 B after Tr=     0.000000    0.000000    0.000000
         Rot=    1.000000    0.000000    0.000000    0.000000 Ang=   0.00 deg.
 Initial guess orbital symmetries:
       Occupied  (A2") (A1') (A1') (A1') (A2") (A1') (E') (E')
                 (A2") (E") (E") (E') (E') (A1')
       Virtual   (A1') (A2") (E') (E') (E') (E') (A2") (A1') (E')
                 (E') (A1') (E") (E") (E') (E') (A2") (A1') (A1')
                 (A2")
 Requested convergence on RMS density matrix=1.00D-08 within 128 cycles.
 Requested convergence on MAX density matrix=1.00D-06.
 Requested convergence on             energy=1.00D-06.
 No special actions if energy rises.
 Keep R1 ints in memory in canonical form, NReq=1087746.
 SCF Done:  E(RB3LYP) =  -238.193842649     A.U. after    8 cycles
             Convg  =    0.7809D-09             -V/T =  2.0052
 Calling FoFJK, ICntrl=      2127 FMM=F ISym2X=1 I1Cent= 0 IOpClX= 0 NMat=1 NMatS=1 NMatT=0.
 ***** Axes restored to original set *****
 -------------------------------------------------------------------
 Center     Atomic                   Forces (Hartrees/Bohr)
 Number     Number              X              Y              Z
 -------------------------------------------------------------------
      1        6           0.000000000    0.000000000    0.000000000
      2        1           0.000000000    0.000216514    0.000000000
      3        1          -0.000187506   -0.000108257    0.000000000
      4        1           0.000187506   -0.000108257    0.000000000
      5        9           0.000000000    0.000000000    0.000040398
      6        9           0.000000000    0.000000000   -0.000040398
 -------------------------------------------------------------------
 Cartesian Forces:  Max     0.000216514 RMS     0.000089411

 GradGradGradGradGradGradGradGradGradGradGradGradGradGradGradGradGradGrad
 Berny optimization.
 Internal  Forces:  Max     0.000216514 RMS     0.000082779
 Search for a saddle point.
 Step number   2 out of a maximum of   31
 All quantities printed in internal units (Hartrees-Bohrs-Radians)
 Swaping is turned off.
 Update second derivatives using D2CorX and points    1    2
 ITU=  0  0
     Eigenvalues ---   -0.01279   0.02916   0.02916   0.06967   0.06967
     Eigenvalues ---    0.10731   0.11092   0.18039   0.18039   0.37421
     Eigenvalues ---    0.38235   0.38235
 Eigenvectors required to have negative eigenvalues:
                          D1        R5        R4        A6        A8
   1                    0.67432   0.39871  -0.39871   0.19466   0.19466
                          A9        A7        A4        A3        R3
   1                   -0.19466  -0.19466  -0.19466   0.19466   0.00000
 RFO step:  Lambda0=0.000000000D+00 Lambda=-3.87987304D-07.
 Linear search not attempted -- option 19 set.
 Iteration  1 RMS(Cart)=  0.00022550 RMS(Int)=  0.00000000
 Iteration  2 RMS(Cart)=  0.00000000 RMS(Int)=  0.00000000
 ClnCor:  largest displacement from symmetrization is 1.16D-09 for atom     6.
 Variable       Old X    -DE/DX   Delta X   Delta X   Delta X     New X
                                 (Linear)    (Quad)   (Total)
    R1        2.04048   0.00022   0.00000   0.00057   0.00057   2.04105
    R2        2.04048   0.00022   0.00000   0.00057   0.00057   2.04105
    R3        2.04048   0.00022   0.00000   0.00057   0.00057   2.04105
    R4        3.41578   0.00004   0.00000   0.00021   0.00021   3.41599
    R5        3.41578   0.00004   0.00000   0.00021   0.00021   3.41599
    A1        2.09440   0.00000   0.00000   0.00000   0.00000   2.09440
    A2        2.09440   0.00000   0.00000   0.00000   0.00000   2.09440
    A3        1.57080   0.00000   0.00000   0.00000   0.00000   1.57080
    A4        1.57080   0.00000   0.00000   0.00000   0.00000   1.57080
    A5        2.09440   0.00000   0.00000   0.00000   0.00000   2.09440
    A6        1.57080   0.00000   0.00000   0.00000   0.00000   1.57080
    A7        1.57080   0.00000   0.00000   0.00000   0.00000   1.57080
    A8        1.57080   0.00000   0.00000   0.00000   0.00000   1.57080
    A9        1.57080   0.00000   0.00000   0.00000   0.00000   1.57080
    D1        3.14159   0.00000   0.00000   0.00000   0.00000   3.14159
    D2        2.09440   0.00000   0.00000   0.00000   0.00000   2.09440
    D3       -2.09440   0.00000   0.00000   0.00000   0.00000  -2.09440
    D4       -2.09440   0.00000   0.00000   0.00000   0.00000  -2.09440
    D5        2.09440   0.00000   0.00000   0.00000   0.00000   2.09440
    D6        2.09440   0.00000   0.00000   0.00000   0.00000   2.09440
    D7       -2.09440   0.00000   0.00000   0.00000   0.00000  -2.09440
         Item               Value     Threshold  Converged?
 Maximum Force            0.000217     0.000450     YES
 RMS     Force            0.000083     0.000300     YES
 Maximum Displacement     0.000571     0.001800     YES
 RMS     Displacement     0.000226     0.001200     YES
 Predicted change in Energy=-1.939937D-07
 Optimization completed.
    -- Stationary point found.
                           ----------------------------
                           !   Optimized Parameters   !
                           ! (Angstroms and Degrees)  !
 --------------------------                            --------------------------
 ! Name  Definition              Value          Derivative Info.                !
 --------------------------------------------------------------------------------
 ! R1    R(1,2)                  1.0798         -DE/DX =    0.0002              !
 ! R2    R(1,3)                  1.0798         -DE/DX =    0.0002              !
 ! R3    R(1,4)                  1.0798         -DE/DX =    0.0002              !
 ! R4    R(1,5)                  1.8076         -DE/DX =    0.0                 !
 ! R5    R(1,6)                  1.8076         -DE/DX =    0.0                 !
 ! A1    A(2,1,3)              120.0            -DE/DX =    0.0                 !
 ! A2    A(2,1,4)              120.0            -DE/DX =    0.0                 !
 ! A3    A(2,1,5)               90.0            -DE/DX =    0.0                 !
 ! A4    A(2,1,6)               90.0            -DE/DX =    0.0                 !
 ! A5    A(3,1,4)              120.0            -DE/DX =    0.0                 !
 ! A6    A(3,1,5)               90.0            -DE/DX =    0.0                 !
 ! A7    A(3,1,6)               90.0            -DE/DX =    0.0                 !
 ! A8    A(4,1,5)               90.0            -DE/DX =    0.0                 !
 ! A9    A(4,1,6)               90.0            -DE/DX =    0.0                 !
 ! D1    D(2,1,4,3)            180.0            -DE/DX =    0.0                 !
 ! D2    D(2,1,5,3)            120.0            -DE/DX =    0.0                 !
 ! D3    D(2,1,6,3)           -120.0            -DE/DX =    0.0                 !
 ! D4    D(2,1,5,4)           -120.0            -DE/DX =    0.0                 !
 ! D5    D(2,1,6,4)            120.0            -DE/DX =    0.0                 !
 ! D6    D(3,1,5,4)            120.0            -DE/DX =    0.0                 !
 ! D7    D(3,1,6,4)           -120.0            -DE/DX =    0.0                 !
 --------------------------------------------------------------------------------
 GradGradGradGradGradGradGradGradGradGradGradGradGradGradGradGradGradGrad

                          Input orientation:                          
 ---------------------------------------------------------------------
 Center     Atomic      Atomic             Coordinates (Angstroms)
 Number     Number       Type             X           Y           Z
 ---------------------------------------------------------------------
      1          6           0        0.000000    0.000000    0.000000
      2          1           0        0.000000    1.079775    0.000000
      3          1           0       -0.935113   -0.539888    0.000000
      4          1           0        0.935113   -0.539888    0.000000
      5          9           0        0.000000    0.000000    1.807553
      6          9           0        0.000000    0.000000   -1.807553
 ---------------------------------------------------------------------
                    Distance matrix (angstroms):
                    1          2          3          4          5
     1  C    0.000000
     2  H    1.079775   0.000000
     3  H    1.079775   1.870226   0.000000
     4  H    1.079775   1.870226   1.870226   0.000000
     5  F    1.807553   2.105508   2.105508   2.105508   0.000000
     6  F    1.807553   2.105508   2.105508   2.105508   3.615107
                    6
     6  F    0.000000
 Stoichiometry    CH3F2(1-)
 Framework group  D3H[O(C),C3(F.F),3C2(H)]
 Deg. of freedom     2
 Full point group                 D3H     NOp  12
 Largest Abelian subgroup         C2V     NOp   4
 Largest concise Abelian subgroup C2V     NOp   4
                         Standard orientation:                         
 ---------------------------------------------------------------------
 Center     Atomic      Atomic             Coordinates (Angstroms)
 Number     Number       Type             X           Y           Z
 ---------------------------------------------------------------------
      1          6           0        0.000000    0.000000    0.000000
      2          1           0        0.000000    1.079775    0.000000
      3          1           0       -0.935113   -0.539888    0.000000
      4          1           0        0.935113   -0.539888    0.000000
      5          9           0        0.000000    0.000000    1.807553
      6          9           0        0.000000    0.000000   -1.807553
 ---------------------------------------------------------------------
 Rotational constants (GHZ):    143.3652823      4.0138877      4.0138877

 **********************************************************************

            Population analysis using the SCF density.

 **********************************************************************

 Orbital symmetries:
       Occupied  (A2") (A1') (A1') (A1') (A2") (A1') (E') (E')
                 (A2") (E") (E") (E') (E') (A1')
       Virtual   (A1') (A2") (E') (E') (E') (E') (A2") (A1') (E')
                 (E') (A1') (E") (E") (E') (E') (A2") (A1') (A1')
                 (A2")
 The electronic state is 1-A1'.
 Alpha  occ. eigenvalues --  -24.10226 -24.10167  -9.93374  -0.72448  -0.71658
 Alpha  occ. eigenvalues --   -0.42525  -0.20227  -0.20227  -0.07603   0.02441
 Alpha  occ. eigenvalues --    0.02441   0.03597   0.03597   0.04602
 Alpha virt. eigenvalues --    0.35469   0.35561   0.40786   0.40786   0.97216
 Alpha virt. eigenvalues --    0.97216   1.11276   1.17012   1.28061   1.28061
 Alpha virt. eigenvalues --    1.91383   2.19106   2.19106   2.27522   2.27522
 Alpha virt. eigenvalues --    2.36664   2.38237   3.61718   3.80656
          Condensed to atoms (all electrons):
              1          2          3          4          5          6
     1  C    5.011609   0.338673   0.338673   0.338673   0.128037   0.128037
     2  H    0.338673   0.603907  -0.014979  -0.014979  -0.022791  -0.022791
     3  H    0.338673  -0.014979   0.603907  -0.014979  -0.022791  -0.022791
     4  H    0.338673  -0.014979  -0.014979   0.603907  -0.022791  -0.022791
     5  F    0.128037  -0.022791  -0.022791  -0.022791   9.497857   0.000065
     6  F    0.128037  -0.022791  -0.022791  -0.022791   0.000065   9.497857
 Mulliken atomic charges:
              1
     1  C   -0.283704
     2  H    0.132959
     3  H    0.132959
     4  H    0.132959
     5  F   -0.557586
     6  F   -0.557586
 Sum of Mulliken atomic charges =  -1.00000
 Mulliken charges with hydrogens summed into heavy atoms:
              1
     1  C    0.115173
     5  F   -0.557586
     6  F   -0.557586
 Sum of Mulliken charges with hydrogens summed into heavy atoms =  -1.00000
 Electronic spatial extent (au):  <R**2>=            274.8945
 Charge=             -1.0000 electrons
 Dipole moment (field-independent basis, Debye):
    X=              0.0000    Y=              0.0000    Z=              0.0000  Tot=              0.0000
 Quadrupole moment (field-independent basis, Debye-Ang):
   XX=            -17.1861   YY=            -17.1861   ZZ=            -36.0911
   XY=              0.0000   XZ=              0.0000   YZ=              0.0000
 Traceless Quadrupole moment (field-independent basis, Debye-Ang):
   XX=              6.3017   YY=              6.3017   ZZ=            -12.6033
   XY=              0.0000   XZ=              0.0000   YZ=              0.0000
 Octapole moment (field-independent basis, Debye-Ang**2):
  XXX=              0.0000  YYY=              0.4958  ZZZ=              0.0000  XYY=              0.0000
  XXY=             -0.4958  XXZ=              0.0000  XZZ=              0.0000  YZZ=              0.0000
  YYZ=              0.0000  XYZ=              0.0000
 Hexadecapole moment (field-independent basis, Debye-Ang**3):
 XXXX=            -19.2309 YYYY=            -19.2309 ZZZZ=           -259.6735 XXXY=              0.0000
 XXXZ=              0.0000 YYYX=              0.0000 YYYZ=              0.0000 ZZZX=              0.0000
 ZZZY=              0.0000 XXYY=             -6.4103 XXZZ=            -37.5162 YYZZ=            -37.5162
 XXYZ=              0.0000 YYXZ=              0.0000 ZZXY=              0.0000
 N-N= 6.671679973375D+01 E-N=-7.100220041868D+02  KE= 2.369668620455D+02
 Symmetry A1   KE= 1.303236783653D+02
 Symmetry A2   KE= 6.246092602781D+00
 Symmetry B1   KE= 8.249900999788D+00
 Symmetry B2   KE= 9.214719007761D+01
 1\1\GINC-ROBERTS-MACBOOK-AIR\FTS\RB3LYP\3-21G\C1H3F2(1-)\RPATON\01-Apr
 -2013\0\\# b3lyp/3-21g opt(ts,calcfc,noeigentest) freq geom=connectivi
 ty\\Title Card Required\\-1,1\C,0.,0.,0.\H,-0.0000000014,1.0797753332,
 0.\H,-0.9351128682,-0.5398876677,0.\H,0.9351128696,-0.5398876654,0.\F,
 0.,0.,1.8075534899\F,0.,0.,-1.8075534899\\Version=EM64M-G09RevB.01\Sta
 te=1-A1'\HF=-238.1938426\RMSD=7.809e-10\RMSF=8.941e-05\Dipole=0.,0.,0.
 \Quadrupole=4.6851377,4.6851377,-9.3702755,0.,0.,0.\PG=D03H [O(C1),C3(
 F1.F1),3C2(H1)]\\@


 A MUSTACHE HAIR ACROSS A CHIP IS LIKE A REDWOOD
 TREE FALLING THROUGH A HOUSING PROJECT.
 - AN IBM MANAGER IN EAST FISHKILL, NEW YORK
   AS QUOTED IN "FROM SANDS TO CIRCUITS", IBM INNOVATION JANUARY 1985.
 Job cpu time:  0 days  0 hours  0 minutes  3.8 seconds.
 File lengths (MBytes):  RWF=      5 Int=      0 D2E=      0 Chk=      1 Scr=      1
 Normal termination of Gaussian 09 at Mon Apr  1 21:41:54 2013.
 Link1:  Proceeding to internal job step number  2.
 -----------------------------------------------------------------
 #N Geom=AllCheck Guess=TCheck SCRF=Check GenChk RB3LYP/3-21G Freq
 -----------------------------------------------------------------
 1/5=1,10=4,11=1,29=7,30=1,38=1,40=1/1,3;
 2/12=2,40=1/2;
 3/5=5,11=2,14=-4,16=1,25=1,30=1,70=2,71=2,74=-5,116=1/1,2,3;
 4/5=101/1;
 5/5=2,98=1/2;
 8/6=4,10=90,11=11/1;
 11/6=1,8=1,9=11,15=111,16=1/1,2,10;
 10/6=1/2;
 6/7=2,8=2,9=2,10=2,18=1,28=1/1;
 7/8=1,10=1,25=1/1,2,3,16;
 1/5=1,10=4,11=1,30=1/3;
 99//99;
 -------------------
 Title Card Required
 -------------------
 Redundant internal coordinates taken from checkpoint file:
 CH3F2TS.chk
 Charge = -1 Multiplicity = 1
 C,0,0.,0.,0.
 H,0,-0.0000000014,1.0797753332,0.
 H,0,-0.9351128682,-0.5398876677,0.
 H,0,0.9351128696,-0.5398876654,0.
 F,0,0.,0.,1.8075534899
 F,0,0.,0.,-1.8075534899
 Recover connectivity data from disk.

 GradGradGradGradGradGradGradGradGradGradGradGradGradGradGradGradGradGrad
 Berny optimization.
 Initialization pass.
                           ----------------------------
                           !    Initial Parameters    !
                           ! (Angstroms and Degrees)  !
 --------------------------                            --------------------------
 ! Name  Definition              Value          Derivative Info.                !
 --------------------------------------------------------------------------------
 ! R1    R(1,2)                  1.0798         calculate D2E/DX2 analytically  !
 ! R2    R(1,3)                  1.0798         calculate D2E/DX2 analytically  !
 ! R3    R(1,4)                  1.0798         calculate D2E/DX2 analytically  !
 ! R4    R(1,5)                  1.8076         calculate D2E/DX2 analytically  !
 ! R5    R(1,6)                  1.8076         calculate D2E/DX2 analytically  !
 ! A1    A(2,1,3)              120.0            calculate D2E/DX2 analytically  !
 ! A2    A(2,1,4)              120.0            calculate D2E/DX2 analytically  !
 ! A3    A(2,1,5)               90.0            calculate D2E/DX2 analytically  !
 ! A4    A(2,1,6)               90.0            calculate D2E/DX2 analytically  !
 ! A5    A(3,1,4)              120.0            calculate D2E/DX2 analytically  !
 ! A6    A(3,1,5)               90.0            calculate D2E/DX2 analytically  !
 ! A7    A(3,1,6)               90.0            calculate D2E/DX2 analytically  !
 ! A8    A(4,1,5)               90.0            calculate D2E/DX2 analytically  !
 ! A9    A(4,1,6)               90.0            calculate D2E/DX2 analytically  !
 ! D1    D(2,1,4,3)            180.0            calculate D2E/DX2 analytically  !
 ! D2    D(2,1,5,3)            120.0            calculate D2E/DX2 analytically  !
 ! D3    D(2,1,6,3)           -120.0            calculate D2E/DX2 analytically  !
 ! D4    D(2,1,5,4)           -120.0            calculate D2E/DX2 analytically  !
 ! D5    D(2,1,6,4)            120.0            calculate D2E/DX2 analytically  !
 ! D6    D(3,1,5,4)            120.0            calculate D2E/DX2 analytically  !
 ! D7    D(3,1,6,4)           -120.0            calculate D2E/DX2 analytically  !
 --------------------------------------------------------------------------------
 Trust Radius=3.00D-01 FncErr=1.00D-07 GrdErr=1.00D-07
 Number of steps in this run=      2 maximum allowed number of steps=      2.
 Search for a saddle point of order  1.
 GradGradGradGradGradGradGradGradGradGradGradGradGradGradGradGradGradGrad

                          Input orientation:                          
 ---------------------------------------------------------------------
 Center     Atomic      Atomic             Coordinates (Angstroms)
 Number     Number       Type             X           Y           Z
 ---------------------------------------------------------------------
      1          6           0        0.000000    0.000000    0.000000
      2          1           0        0.000000    1.079775    0.000000
      3          1           0       -0.935113   -0.539888    0.000000
      4          1           0        0.935113   -0.539888    0.000000
      5          9           0        0.000000    0.000000    1.807553
      6          9           0        0.000000    0.000000   -1.807553
 ---------------------------------------------------------------------
                    Distance matrix (angstroms):
                    1          2          3          4          5
     1  C    0.000000
     2  H    1.079775   0.000000
     3  H    1.079775   1.870226   0.000000
     4  H    1.079775   1.870226   1.870226   0.000000
     5  F    1.807553   2.105508   2.105508   2.105508   0.000000
     6  F    1.807553   2.105508   2.105508   2.105508   3.615107
                    6
     6  F    0.000000
 Stoichiometry    CH3F2(1-)
 Framework group  D3H[O(C),C3(F.F),3C2(H)]
 Deg. of freedom     2
 Full point group                 D3H     NOp  12
 Largest Abelian subgroup         C2V     NOp   4
 Largest concise Abelian subgroup C2V     NOp   4
                         Standard orientation:                         
 ---------------------------------------------------------------------
 Center     Atomic      Atomic             Coordinates (Angstroms)
 Number     Number       Type             X           Y           Z
 ---------------------------------------------------------------------
      1          6           0        0.000000    0.000000    0.000000
      2          1           0        0.000000    1.079775    0.000000
      3          1           0       -0.935113   -0.539888    0.000000
      4          1           0        0.935113   -0.539888    0.000000
      5          9           0        0.000000    0.000000    1.807553
      6          9           0        0.000000    0.000000   -1.807553
 ---------------------------------------------------------------------
 Rotational constants (GHZ):    143.3652823      4.0138877      4.0138877
 Standard basis: 3-21G (6D, 7F)
 There are    16 symmetry adapted basis functions of A1  symmetry.
 There are     2 symmetry adapted basis functions of A2  symmetry.
 There are     6 symmetry adapted basis functions of B1  symmetry.
 There are     9 symmetry adapted basis functions of B2  symmetry.
 Integral buffers will be    131072 words long.
 Raffenetti 2 integral format.
 Two-electron integral symmetry is turned on.
    33 basis functions,    54 primitive gaussians,    33 cartesian basis functions
    14 alpha electrons       14 beta electrons
       nuclear repulsion energy        66.7167997338 Hartrees.
 NAtoms=    6 NActive=    6 NUniq=    3 SFac= 4.00D+00 NAtFMM=   50 NAOKFM=F Big=F
 One-electron integrals computed using PRISM.
 NBasis=    33 RedAO= T  NBF=    16     2     6     9
 NBsUse=    33 1.00D-06 NBFU=    16     2     6     9
 Initial guess read from the checkpoint file:  CH3F2TS.chk
 B after Tr=     0.000000    0.000000    0.000000
         Rot=    1.000000    0.000000    0.000000    0.000000 Ang=   0.00 deg.
 Initial guess orbital symmetries:
       Occupied  (A2") (A1') (A1') (A1') (A2") (A1') (E') (E')
                 (A2") (E") (E") (E') (E') (A1')
       Virtual   (A1') (A2") (E') (E') (E') (E') (A2") (A1') (E')
                 (E') (A1') (E") (E") (E') (E') (A2") (A1') (A1')
                 (A2")
 Requested convergence on RMS density matrix=1.00D-08 within 128 cycles.
 Requested convergence on MAX density matrix=1.00D-06.
 Requested convergence on             energy=1.00D-06.
 No special actions if energy rises.
 Keep R1 ints in memory in canonical form, NReq=1087746.
 SCF Done:  E(RB3LYP) =  -238.193842649     A.U. after    1 cycles
             Convg  =    0.3446D-10             -V/T =  2.0052
 Range of M.O.s used for correlation:     1    33
 NBasis=    33 NAE=    14 NBE=    14 NFC=     0 NFV=     0
 NROrb=     33 NOA=    14 NOB=    14 NVA=    19 NVB=    19
 Symmetrizing basis deriv contribution to polar:
 IMax=3 JMax=2 DiffMx= 0.00D+00
 G2DrvN: will do     7 centers at a time, making    1 passes doing MaxLOS=1.
 Calling FoFCou, ICntrl=  3107 FMM=F I1Cent=   0 AccDes= 0.00D+00.
 FoFDir/FoFCou used for L=0 through L=1.
 End of G2Drv Frequency-dependent properties file   721 does not exist.
 End of G2Drv Frequency-dependent properties file   722 does not exist.
          IDoAtm=111111
          Differentiating once with respect to electric field.
                with respect to dipole field.
          Differentiating once with respect to nuclear coordinates.
          Keep R1 ints in memory in canonical form, NReq=959788.
          There are    12 degrees of freedom in the 1st order CPHF.  IDoFFX=4.
     12 vectors produced by pass  0 Test12= 2.22D-15 8.33D-09 XBig12= 3.98D+01 6.20D+00.
 AX will form    12 AO Fock derivatives at one time.
     12 vectors produced by pass  1 Test12= 2.22D-15 8.33D-09 XBig12= 3.71D+00 7.10D-01.
     12 vectors produced by pass  2 Test12= 2.22D-15 8.33D-09 XBig12= 1.75D-02 5.92D-02.
     12 vectors produced by pass  3 Test12= 2.22D-15 8.33D-09 XBig12= 4.14D-05 4.30D-03.
     12 vectors produced by pass  4 Test12= 2.22D-15 8.33D-09 XBig12= 6.09D-08 1.31D-04.
      6 vectors produced by pass  5 Test12= 2.22D-15 8.33D-09 XBig12= 5.86D-11 3.15D-06.
      3 vectors produced by pass  6 Test12= 2.22D-15 8.33D-09 XBig12= 3.16D-14 9.90D-08.
 Inverted reduced A of dimension    69 with in-core refinement.
 Isotropic polarizability for W=    0.000000       16.97 Bohr**3.
 End of Minotr Frequency-dependent properties file   721 does not exist.
 End of Minotr Frequency-dependent properties file   722 does not exist.

 **********************************************************************

            Population analysis using the SCF density.

 **********************************************************************

 Orbital symmetries:
       Occupied  (A2") (A1') (A1') (A1') (A2") (A1') (E') (E')
                 (A2") (E") (E") (E') (E') (A1')
       Virtual   (A1') (A2") (E') (E') (E') (E') (A2") (A1') (E')
                 (E') (A1') (E") (E") (E') (E') (A2") (A1') (A1')
                 (A2")
 The electronic state is 1-A1'.
 Alpha  occ. eigenvalues --  -24.10226 -24.10167  -9.93374  -0.72448  -0.71658
 Alpha  occ. eigenvalues --   -0.42525  -0.20227  -0.20227  -0.07603   0.02441
 Alpha  occ. eigenvalues --    0.02441   0.03597   0.03597   0.04602
 Alpha virt. eigenvalues --    0.35469   0.35561   0.40786   0.40786   0.97216
 Alpha virt. eigenvalues --    0.97216   1.11276   1.17012   1.28061   1.28061
 Alpha virt. eigenvalues --    1.91383   2.19106   2.19106   2.27522   2.27522
 Alpha virt. eigenvalues --    2.36664   2.38237   3.61718   3.80656
          Condensed to atoms (all electrons):
              1          2          3          4          5          6
     1  C    5.011609   0.338673   0.338673   0.338673   0.128037   0.128037
     2  H    0.338673   0.603907  -0.014979  -0.014979  -0.022791  -0.022791
     3  H    0.338673  -0.014979   0.603907  -0.014979  -0.022791  -0.022791
     4  H    0.338673  -0.014979  -0.014979   0.603907  -0.022791  -0.022791
     5  F    0.128037  -0.022791  -0.022791  -0.022791   9.497857   0.000065
     6  F    0.128037  -0.022791  -0.022791  -0.022791   0.000065   9.497857
 Mulliken atomic charges:
              1
     1  C   -0.283704
     2  H    0.132959
     3  H    0.132959
     4  H    0.132959
     5  F   -0.557586
     6  F   -0.557586
 Sum of Mulliken atomic charges =  -1.00000
 Mulliken charges with hydrogens summed into heavy atoms:
              1
     1  C    0.115173
     5  F   -0.557586
     6  F   -0.557586
 Sum of Mulliken charges with hydrogens summed into heavy atoms =  -1.00000
 APT atomic charges:
              1
     1  C    0.928279
     2  H   -0.093137
     3  H   -0.093138
     4  H   -0.093138
     5  F   -0.824432
     6  F   -0.824432
 Sum of APT charges=  -1.00000
 APT Atomic charges with hydrogens summed into heavy atoms:
              1
     1  C    0.648866
     2  H    0.000000
     3  H    0.000000
     4  H    0.000000
     5  F   -0.824432
     6  F   -0.824432
 Sum of APT charges=  -1.00000
 Electronic spatial extent (au):  <R**2>=            274.8945
 Charge=             -1.0000 electrons
 Dipole moment (field-independent basis, Debye):
    X=              0.0000    Y=              0.0000    Z=              0.0000  Tot=              0.0000
 Quadrupole moment (field-independent basis, Debye-Ang):
   XX=            -17.1861   YY=            -17.1861   ZZ=            -36.0911
   XY=              0.0000   XZ=              0.0000   YZ=              0.0000
 Traceless Quadrupole moment (field-independent basis, Debye-Ang):
   XX=              6.3017   YY=              6.3017   ZZ=            -12.6033
   XY=              0.0000   XZ=              0.0000   YZ=              0.0000
 Octapole moment (field-independent basis, Debye-Ang**2):
  XXX=              0.0000  YYY=              0.4958  ZZZ=              0.0000  XYY=              0.0000
  XXY=             -0.4958  XXZ=              0.0000  XZZ=              0.0000  YZZ=              0.0000
  YYZ=              0.0000  XYZ=              0.0000
 Hexadecapole moment (field-independent basis, Debye-Ang**3):
 XXXX=            -19.2309 YYYY=            -19.2309 ZZZZ=           -259.6735 XXXY=              0.0000
 XXXZ=              0.0000 YYYX=              0.0000 YYYZ=              0.0000 ZZZX=              0.0000
 ZZZY=              0.0000 XXYY=             -6.4103 XXZZ=            -37.5162 YYZZ=            -37.5162
 XXYZ=              0.0000 YYXZ=              0.0000 ZZXY=              0.0000
 N-N= 6.671679973375D+01 E-N=-7.100220041803D+02  KE= 2.369668620425D+02
 Symmetry A1   KE= 1.303236783642D+02
 Symmetry A2   KE= 6.246092602399D+00
 Symmetry B1   KE= 8.249900998905D+00
 Symmetry B2   KE= 9.214719007697D+01
  Exact polarizability:  11.878   0.000  11.877   0.000   0.000  27.160
 Approx polarizability:  13.739   0.000  13.739   0.000   0.000  51.113
 Calling FoFJK, ICntrl=    100127 FMM=F ISym2X=1 I1Cent= 0 IOpClX= 0 NMat=1 NMatS=1 NMatT=0.
 Full mass-weighted force constant matrix:
 Low frequencies --- -526.3264  -40.1227   -0.0031   -0.0008    0.0123    6.3272
 Low frequencies ---    6.3374  327.1582  327.1587
 ******    1 imaginary frequencies (negative Signs) ****** 
 Harmonic frequencies (cm**-1), IR intensities (KM/Mole), Raman scattering
 activities (A**4/AMU), depolarization ratios for plane and unpolarized
 incident light, reduced masses (AMU), force constants (mDyne/A),
 and normal coordinates:
                     1                      2                      3
                    A2"                    E'                     E'
 Frequencies --  -526.3264               327.1582               327.1587
 Red. masses --     6.3442                 4.2969                 4.2969
 Frc consts  --     1.0355                 0.2710                 0.2710
 IR Inten    --   520.6869                14.0110                14.0107
  Atom  AN      X      Y      Z        X      Y      Z        X      Y      Z
     1   6     0.00   0.00   0.63     0.44   0.00   0.00     0.00   0.44   0.00
     2   1     0.00   0.00  -0.43     0.53   0.00   0.00     0.00   0.46   0.00
     3   1     0.00   0.00  -0.43     0.48  -0.03   0.00    -0.03   0.51   0.00
     4   1     0.00   0.00  -0.43     0.48   0.03   0.00     0.03   0.51   0.00
     5   9     0.00   0.00  -0.16    -0.18   0.00   0.00     0.00  -0.18   0.00
     6   9     0.00   0.00  -0.16    -0.18   0.00   0.00     0.00  -0.18   0.00
                     4                      5                      6
                    A1'                    E"                     E"
 Frequencies --   385.2025               937.4408               937.4410
 Red. masses --    18.9099                 1.0214                 1.0214
 Frc consts  --     1.6532                 0.5288                 0.5288
 IR Inten    --     0.0000                 0.0000                 0.0000
  Atom  AN      X      Y      Z        X      Y      Z        X      Y      Z
     1   6     0.00   0.00   0.00     0.00   0.00   0.00     0.00   0.00   0.00
     2   1     0.00  -0.04   0.00     0.00   0.00   0.82     0.00   0.00   0.00
     3   1     0.04   0.02   0.00     0.00   0.00  -0.41     0.00   0.00   0.71
     4   1    -0.04   0.02   0.00     0.00   0.00  -0.41     0.00   0.00  -0.71
     5   9     0.00   0.00   0.71     0.00   0.02   0.00    -0.02   0.00   0.00
     6   9     0.00   0.00  -0.71     0.00  -0.02   0.00     0.02   0.00   0.00
                     7                      8                      9
                    A2"                    E'                     E'
 Frequencies --  1065.0180              1380.5142              1380.5146
 Red. masses --     1.1663                 1.1264                 1.1264
 Frc consts  --     0.7794                 1.2648                 1.2648
 IR Inten    --     7.4312                 2.0499                 2.0498
  Atom  AN      X      Y      Z        X      Y      Z        X      Y      Z
     1   6     0.00   0.00   0.05    -0.10   0.00   0.00     0.00  -0.10   0.00
     2   1     0.00   0.00   0.57     0.81   0.00   0.00     0.00  -0.10   0.00
     3   1     0.00   0.00   0.57     0.13  -0.39   0.00    -0.39   0.58   0.00
     4   1     0.00   0.00   0.57     0.13   0.39   0.00     0.39   0.58   0.00
     5   9     0.00   0.00  -0.06     0.00   0.00   0.00     0.00   0.00   0.00
     6   9     0.00   0.00  -0.06     0.00   0.00   0.00     0.00   0.00   0.00
                    10                     11                     12
                    A1'                    E'                     E'
 Frequencies --  3073.1164              3255.4356              3255.4369
 Red. masses --     1.0081                 1.1277                 1.1277
 Frc consts  --     5.6092                 7.0417                 7.0417
 IR Inten    --     0.0000                90.6959                90.6917
  Atom  AN      X      Y      Z        X      Y      Z        X      Y      Z
     1   6     0.00   0.00   0.00     0.00  -0.10   0.00    -0.10   0.00   0.00
     2   1     0.00   0.58   0.00     0.00   0.81   0.00    -0.01   0.00   0.00
     3   1    -0.50  -0.29   0.00     0.36   0.20   0.00     0.61   0.36   0.00
     4   1     0.50  -0.29   0.00    -0.36   0.20   0.00     0.61  -0.36   0.00
     5   9     0.00   0.00   0.00     0.00   0.00   0.00     0.00   0.00   0.00
     6   9     0.00   0.00   0.00     0.00   0.00   0.00     0.00   0.00   0.00

 -------------------
 - Thermochemistry -
 -------------------
 Temperature   298.150 Kelvin.  Pressure   1.00000 Atm.
 Atom     1 has atomic number  6 and mass  12.00000
 Atom     2 has atomic number  1 and mass   1.00783
 Atom     3 has atomic number  1 and mass   1.00783
 Atom     4 has atomic number  1 and mass   1.00783
 Atom     5 has atomic number  9 and mass  18.99840
 Atom     6 has atomic number  9 and mass  18.99840
 Molecular mass:    53.02028 amu.
 Principal axes and moments of inertia in atomic units:
                           1         2         3
     Eigenvalues --    12.58841 449.62424 449.62424
           X            0.00000   1.00000   0.00000
           Y            0.00000   0.00000   1.00000
           Z            1.00000   0.00000   0.00000
 This molecule is a prolate symmetric top.
 Rotational symmetry number  6.
 Rotational temperatures (Kelvin)      6.88044     0.19264     0.19264
 Rotational constants (GHZ):         143.36528     4.01389     4.01389
    1 imaginary frequencies ignored.
 Zero-point vibrational energy      97641.8 (Joules/Mol)
                                   23.33695 (Kcal/Mol)
 Warning -- explicit consideration of   3 degrees of freedom as
           vibrations may cause significant error
 Vibrational temperatures:    470.71   470.71   554.22  1348.77  1348.77
          (Kelvin)           1532.32  1986.25  1986.25  4421.52  4683.84
                             4683.84
 
 Zero-point correction=                           0.037190 (Hartree/Particle)
 Thermal correction to Energy=                    0.041259
 Thermal correction to Enthalpy=                  0.042204
 Thermal correction to Gibbs Free Energy=         0.013390
 Sum of electronic and zero-point Energies=           -238.156653
 Sum of electronic and thermal Energies=              -238.152583
 Sum of electronic and thermal Enthalpies=            -238.151639
 Sum of electronic and thermal Free Energies=         -238.180452
 
                     E (Thermal)             CV                S
                      KCal/Mol        Cal/Mol-Kelvin    Cal/Mol-Kelvin
 Total                   25.891             12.145             60.643
 Electronic               0.000              0.000              0.000
 Translational            0.889              2.981             37.827
 Rotational               0.889              2.981             18.898
 Vibrational             24.113              6.184              3.918
 Vibration     1          0.711              1.621              1.274
 Vibration     2          0.711              1.621              1.274
 Vibration     3          0.754              1.502              1.019
                       Q            Log10(Q)             Ln(Q)
 Total Bot       0.693255D-06         -6.159107        -14.181868
 Total V=0       0.885072D+11         10.946978         25.206349
 Vib (Bot)       0.151790D-16        -16.818756        -38.726616
 Vib (Bot)    1  0.572114D+00         -0.242518         -0.558417
 Vib (Bot)    2  0.572113D+00         -0.242518         -0.558419
 Vib (Bot)    3  0.467663D+00         -0.330067         -0.760006
 Vib (V=0)       0.193789D+01          0.287330          0.661602
 Vib (V=0)    1  0.125981D+01          0.100306          0.230963
 Vib (V=0)    2  0.125981D+01          0.100305          0.230962
 Vib (V=0)    3  0.118462D+01          0.073580          0.169425
 Electronic      0.100000D+01          0.000000          0.000000
 Translational   0.151746D+08          7.181118         16.535136
 Rotational      0.300975D+04          3.478530          8.009612
 ***** Axes restored to original set *****
 -------------------------------------------------------------------
 Center     Atomic                   Forces (Hartrees/Bohr)
 Number     Number              X              Y              Z
 -------------------------------------------------------------------
      1        6           0.000000000    0.000000000    0.000000000
      2        1           0.000000000    0.000216514    0.000000000
      3        1          -0.000187506   -0.000108257    0.000000000
      4        1           0.000187506   -0.000108257    0.000000000
      5        9           0.000000000    0.000000000    0.000040396
      6        9           0.000000000    0.000000000   -0.000040396
 -------------------------------------------------------------------
 Cartesian Forces:  Max     0.000216514 RMS     0.000089411

 GradGradGradGradGradGradGradGradGradGradGradGradGradGradGradGradGradGrad
 Berny optimization.
 Internal  Forces:  Max     0.000216514 RMS     0.000082779
 Search for a saddle point.
 Step number   1 out of a maximum of    2
 All quantities printed in internal units (Hartrees-Bohrs-Radians)
 Swaping is turned off.
 Second derivative matrix not updated -- analytic derivatives used.
 ITU=  0
     Eigenvalues ---   -0.01296   0.02885   0.02885   0.06900   0.06900
     Eigenvalues ---    0.10405   0.10599   0.17764   0.17764   0.36015
     Eigenvalues ---    0.36015   0.36254
 Eigenvectors required to have negative eigenvalues:
                          D1        R4        R5        A9        A7
   1                    0.67059  -0.40340   0.40340  -0.19358  -0.19358
                          A6        A8        A3        A4        R1
   1                    0.19358   0.19358   0.19358  -0.19358   0.00000
 Angle between quadratic step and forces=   7.30 degrees.
 Linear search not attempted -- option 19 set.
 Iteration  1 RMS(Cart)=  0.00023178 RMS(Int)=  0.00000000
 Iteration  2 RMS(Cart)=  0.00000000 RMS(Int)=  0.00000000
 ClnCor:  largest displacement from symmetrization is 6.29D-09 for atom     6.
 Variable       Old X    -DE/DX   Delta X   Delta X   Delta X     New X
                                 (Linear)    (Quad)   (Total)
    R1        2.04048   0.00022   0.00000   0.00059   0.00059   2.04107
    R2        2.04048   0.00022   0.00000   0.00059   0.00059   2.04107
    R3        2.04048   0.00022   0.00000   0.00059   0.00059   2.04107
    R4        3.41578   0.00004   0.00000   0.00021   0.00021   3.41599
    R5        3.41578   0.00004   0.00000   0.00021   0.00021   3.41599
    A1        2.09440   0.00000   0.00000   0.00000   0.00000   2.09440
    A2        2.09440   0.00000   0.00000   0.00000   0.00000   2.09440
    A3        1.57080   0.00000   0.00000   0.00000   0.00000   1.57080
    A4        1.57080   0.00000   0.00000   0.00000   0.00000   1.57080
    A5        2.09440   0.00000   0.00000   0.00000   0.00000   2.09440
    A6        1.57080   0.00000   0.00000   0.00000   0.00000   1.57080
    A7        1.57080   0.00000   0.00000   0.00000   0.00000   1.57080
    A8        1.57080   0.00000   0.00000   0.00000   0.00000   1.57080
    A9        1.57080   0.00000   0.00000   0.00000   0.00000   1.57080
    D1        3.14159   0.00000   0.00000   0.00000   0.00000   3.14159
    D2        2.09440   0.00000   0.00000   0.00000   0.00000   2.09440
    D3       -2.09440   0.00000   0.00000   0.00000   0.00000  -2.09440
    D4       -2.09440   0.00000   0.00000   0.00000   0.00000  -2.09440
    D5        2.09440   0.00000   0.00000   0.00000   0.00000   2.09440
    D6        2.09440   0.00000   0.00000   0.00000   0.00000   2.09440
    D7       -2.09440   0.00000   0.00000   0.00000   0.00000  -2.09440
         Item               Value     Threshold  Converged?
 Maximum Force            0.000217     0.000450     YES
 RMS     Force            0.000083     0.000300     YES
 Maximum Displacement     0.000590     0.001800     YES
 RMS     Displacement     0.000232     0.001200     YES
 Predicted change in Energy=-1.998251D-07
 Optimization completed.
    -- Stationary point found.
                           ----------------------------
                           !   Optimized Parameters   !
                           ! (Angstroms and Degrees)  !
 --------------------------                            --------------------------
 ! Name  Definition              Value          Derivative Info.                !
 --------------------------------------------------------------------------------
 ! R1    R(1,2)                  1.0798         -DE/DX =    0.0002              !
 ! R2    R(1,3)                  1.0798         -DE/DX =    0.0002              !
 ! R3    R(1,4)                  1.0798         -DE/DX =    0.0002              !
 ! R4    R(1,5)                  1.8076         -DE/DX =    0.0                 !
 ! R5    R(1,6)                  1.8076         -DE/DX =    0.0                 !
 ! A1    A(2,1,3)              120.0            -DE/DX =    0.0                 !
 ! A2    A(2,1,4)              120.0            -DE/DX =    0.0                 !
 ! A3    A(2,1,5)               90.0            -DE/DX =    0.0                 !
 ! A4    A(2,1,6)               90.0            -DE/DX =    0.0                 !
 ! A5    A(3,1,4)              120.0            -DE/DX =    0.0                 !
 ! A6    A(3,1,5)               90.0            -DE/DX =    0.0                 !
 ! A7    A(3,1,6)               90.0            -DE/DX =    0.0                 !
 ! A8    A(4,1,5)               90.0            -DE/DX =    0.0                 !
 ! A9    A(4,1,6)               90.0            -DE/DX =    0.0                 !
 ! D1    D(2,1,4,3)            180.0            -DE/DX =    0.0                 !
 ! D2    D(2,1,5,3)            120.0            -DE/DX =    0.0                 !
 ! D3    D(2,1,6,3)           -120.0            -DE/DX =    0.0                 !
 ! D4    D(2,1,5,4)           -120.0            -DE/DX =    0.0                 !
 ! D5    D(2,1,6,4)            120.0            -DE/DX =    0.0                 !
 ! D6    D(3,1,5,4)            120.0            -DE/DX =    0.0                 !
 ! D7    D(3,1,6,4)           -120.0            -DE/DX =    0.0                 !
 --------------------------------------------------------------------------------
 GradGradGradGradGradGradGradGradGradGradGradGradGradGradGradGradGradGrad

 1\1\GINC-ROBERTS-MACBOOK-AIR\Freq\RB3LYP\3-21G\C1H3F2(1-)\RPATON\01-Ap
 r-2013\0\\#N Geom=AllCheck Guess=TCheck SCRF=Check GenChk RB3LYP/3-21G
  Freq\\Title Card Required\\-1,1\C,0.,0.,0.\H,-0.0000000014,1.07977533
 32,0.\H,-0.9351128682,-0.5398876677,0.\H,0.9351128696,-0.5398876654,0.
 \F,0.,0.,1.8075534899\F,0.,0.,-1.8075534899\\Version=EM64M-G09RevB.01\
 State=1-A1'\HF=-238.1938426\RMSD=3.446e-11\RMSF=8.941e-05\ZeroPoint=0.
 0371898\Thermal=0.0412594\Dipole=0.,0.,0.\DipoleDeriv=0.3860647,0.,0.,
 0.,0.3860726,0.,0.,0.,2.0126999,0.0493367,0.,0.,0.,-0.2314467,0.,0.,0.
 ,-0.0973012,-0.1612477,-0.1215833,0.,-0.1215802,-0.020861,0.,0.,0.,-0.
 0973048,-0.1612477,0.1215833,0.,0.1215802,-0.020861,0.,0.,0.,-0.097304
 8,-0.5564562,0.,0.,0.,-0.5564501,0.0000002,0.,-0.0000081,-1.3603909,-0
 .5564562,0.,0.,0.,-0.5564501,-0.0000002,0.,0.0000081,-1.3603909\Polar=
 11.8777201,0.,11.8774501,0.,0.,27.1597861\PG=D03H [O(C1),C3(F1.F1),3C2
 (H1)]\NImag=1\\0.68371083,0.,0.68370761,0.,0.,-0.08218817,-0.05838994,
 0.,0.,0.04254053,0.,-0.35453456,0.,0.,0.35902516,0.,0.,0.01763778,0.,0
 .,0.03406345,-0.28049984,-0.12823530,0.,0.00522747,0.00266578,0.,0.279
 90400,-0.12823536,-0.13242668,0.,-0.02157815,-0.00569159,0.,0.13704187
 ,0.12166169,0.,0.,0.01763822,0.,0.,0.00101734,0.,0.,0.03406345,-0.2804
 9984,0.12823530,0.,0.00522747,-0.00266578,0.,-0.01115113,0.01212196,0.
 ,0.27990400,0.12823536,-0.13242668,0.,0.02157815,-0.00569159,0.,-0.012
 12196,0.01068700,0.,-0.13704187,0.12166169,0.,0.,0.01763822,0.,0.,0.00
 101734,0.,0.,0.00101734,0.,0.,0.03406345,-0.03215918,0.,0.,0.00269718,
 0.,0.,0.00325898,0.00032436,-0.00856296,0.00325898,-0.00032436,0.00856
 296,0.01592443,0.,-0.03215926,0.00000013,0.,0.00344635,0.00988754,0.00
 032438,0.00288442,-0.00494373,-0.00032438,0.00288442,-0.00494373,0.,0.
 01592424,0.,0.00000126,0.01463654,0.,0.01017476,-0.02686796,-0.0088119
 2,-0.00508762,-0.02686801,0.00881192,-0.00508762,-0.02686801,0.,-0.000
 00032,0.08720054,-0.03215918,0.,0.,0.00269718,0.,0.,0.00325898,0.00032
 436,0.00856296,0.00325898,-0.00032436,-0.00856296,0.00701975,0.,0.,0.0
 1592443,0.,-0.03215926,-0.00000013,0.,0.00344635,-0.00988754,0.0003243
 8,0.00288442,0.00494373,-0.00032438,0.00288442,0.00494373,0.,0.0070199
 1,0.,0.,0.01592424,0.,-0.00000126,0.01463654,0.,-0.01017476,-0.0268679
 6,0.00881192,0.00508762,-0.02686801,-0.00881192,0.00508762,-0.02686801
 ,0.,0.,-0.02123297,0.,0.00000032,0.08720054\\0.,0.,0.,0.,-0.00021651,0
 .,0.00018751,0.00010826,0.,-0.00018751,0.00010826,0.,0.,0.,-0.00004040
 ,0.,0.,0.00004040\\\@


 IF OTHER PEOPLE ARE GOING TO TALK, CONVERSATION IS SIMPLY IMPOSSIBLE.

                                               -- WHISTLER'S PRINCIPLE
 Job cpu time:  0 days  0 hours  0 minutes  2.6 seconds.
 File lengths (MBytes):  RWF=      5 Int=      0 D2E=      0 Chk=      1 Scr=      1
 Normal termination of Gaussian 09 at Mon Apr  1 21:41:57 2013.
